Topology written by cardenasvasquez at 2024-10-21 10:39:28.115294 using the GMSO LAMMPS Writer


2040 atoms
1360 bonds
680 angles
0 dihedrals
0 impropers

2 atom types
1 bond types
1 angle types

0.000000 50.000000 xlo xhi
0.000000 50.000000 ylo yhi
0.000000 50.000000 zlo zhi
0.000000 0.000000 0.000000 xy xz yz

Masses
#	mass (amu)
1	1.008	# ho
2	16.000	# oh

Pair Coeffs # 4*epsilon*(-sigma**6/r**6 + sigma**12/r**12)
#	epsilon (kcal/mol)	sigma (Å)
1	0.00000		0.00000		# ho
2	0.21040		3.06647		# oh

Bond Coeffs #LAMMPSHarmonicBondPotential
#	k (kcal/(mol*Å**2))	r_eq (Å)
1	371.400000	0.973000		# ho	oh

Angle Coeffs #LAMMPSHarmonicAnglePotential
#	k (kcal/(mol*rad**2))	theta_eq (degrees)
1	41.600000	106.490000	#ho         	oh         	ho         

Atoms #full

1	1	2	0.000000	21.58338	3.954715	39.18531
2	1	1	0.000000	21.00180	4.279582	39.87267
3	1	1	0.000000	20.99722	3.546633	38.54803
4	2	2	0.000000	28.24718	18.82711	3.617320
5	2	1	0.000000	28.20780	19.19234	4.501225
6	2	1	0.000000	27.38459	19.00842	3.244089
7	3	2	0.000000	17.48119	45.25288	38.15265
8	3	1	0.000000	18.37485	45.54617	38.33041
9	3	1	0.000000	16.96271	46.05738	38.13959
10	4	2	0.000000	45.16788	12.10412	41.73524
11	4	1	0.000000	45.05273	12.75200	42.43038
12	4	1	0.000000	44.35500	11.59874	41.74114
13	5	2	0.000000	29.01348	31.76730	17.14346
14	5	1	0.000000	28.98181	30.96982	16.61501
15	5	1	0.000000	29.57648	31.54219	17.88413
16	6	2	0.000000	11.22324	39.31955	28.69105
17	6	1	0.000000	11.37887	38.79674	29.47761
18	6	1	0.000000	12.06351	39.31936	28.23261
19	7	2	0.000000	24.70498	16.58777	11.27434
20	7	1	0.000000	25.25190	17.37331	11.28089
21	7	1	0.000000	23.80739	16.92027	11.27545
22	8	2	0.000000	33.82453	18.77751	31.28201
23	8	1	0.000000	33.03340	18.92228	30.76298
24	8	1	0.000000	33.82671	17.83679	31.45889
25	9	2	0.000000	21.64670	3.758078	33.30110
26	9	1	0.000000	22.55546	4.057786	33.32498
27	9	1	0.000000	21.18190	4.354190	33.88834
28	10	2	0.000000	22.50700	34.83317	47.98979
29	10	1	0.000000	23.35194	34.50389	47.68337
30	10	1	0.000000	21.86060	34.27814	47.55351
31	11	2	0.000000	9.365463	25.70430	6.279959
32	11	1	0.000000	8.414446	25.81156	6.297059
33	11	1	0.000000	9.499581	24.75713	6.246637
34	12	2	0.000000	39.92755	25.74128	7.319179
35	12	1	0.000000	39.69984	26.66276	7.442633
36	12	1	0.000000	39.91669	25.37105	8.201816
37	13	2	0.000000	15.34404	16.75864	35.53454
38	13	1	0.000000	15.43853	17.03182	36.44705
39	13	1	0.000000	15.66346	15.85643	35.51982
40	14	2	0.000000	28.95400	40.51383	32.92056
41	14	1	0.000000	29.51681	39.75209	33.05916
42	14	1	0.000000	29.52843	41.26593	33.06409
43	15	2	0.000000	28.07080	22.86800	40.67195
44	15	1	0.000000	29.01534	22.71511	40.69834
45	15	1	0.000000	27.98374	23.79272	40.44057
46	16	2	0.000000	42.09605	10.75631	34.49061
47	16	1	0.000000	42.55930	11.58505	34.36888
48	16	1	0.000000	41.34959	10.97813	35.04724
49	17	2	0.000000	21.50321	11.06129	38.94040
50	17	1	0.000000	20.62346	11.12601	38.56882
51	17	1	0.000000	21.97453	11.80901	38.57297
52	18	2	0.000000	20.14786	16.44269	39.21541
53	18	1	0.000000	20.70015	17.05959	38.73516
54	18	1	0.000000	19.42390	16.97508	39.54505
55	19	2	0.000000	12.67126	8.130512	32.47329
56	19	1	0.000000	13.27064	8.866429	32.34918
57	19	1	0.000000	11.84084	8.536610	32.72170
58	20	2	0.000000	40.80430	15.77231	36.34557
59	20	1	0.000000	39.91899	16.09163	36.52017
60	20	1	0.000000	40.69366	14.83574	36.18175
61	21	2	0.000000	44.70443	3.167132	21.65854
62	21	1	0.000000	44.08669	2.644596	21.14709
63	21	1	0.000000	44.15845	3.812052	22.10823
64	22	2	0.000000	35.27023	17.42623	4.126173
65	22	1	0.000000	35.94145	16.98950	3.601807
66	22	1	0.000000	34.75128	17.91841	3.490031
67	23	2	0.000000	35.85075	38.60646	35.47663
68	23	1	0.000000	36.51484	38.14532	35.98904
69	23	1	0.000000	36.27240	38.77566	34.63413
70	24	2	0.000000	13.13028	7.236821	2.633003
71	24	1	0.000000	12.79954	6.941688	3.481376
72	24	1	0.000000	12.78252	6.602634	2.006030
73	25	2	0.000000	26.82984	13.59448	41.18020
74	25	1	0.000000	26.93649	13.47290	42.12364
75	25	1	0.000000	26.07864	14.18191	41.09733
76	26	2	0.000000	37.73358	18.41831	4.802408
77	26	1	0.000000	38.27612	18.36323	5.589075
78	26	1	0.000000	37.38030	19.30782	4.816332
79	27	2	0.000000	40.56843	6.595674	44.75300
80	27	1	0.000000	41.42816	6.183957	44.84011
81	27	1	0.000000	40.68710	7.476563	45.10822
82	28	2	0.000000	13.79712	33.38106	4.452886
83	28	1	0.000000	14.20448	32.57283	4.764401
84	28	1	0.000000	12.86043	33.18510	4.431933
85	29	2	0.000000	14.02190	19.97427	34.61602
86	29	1	0.000000	14.85679	19.50749	34.57982
87	29	1	0.000000	14.00644	20.37121	35.48689
88	30	2	0.000000	2.216586	33.70276	41.87753
89	30	1	0.000000	2.800242	32.94414	41.88596
90	30	1	0.000000	2.771875	34.42965	41.59554
91	31	2	0.000000	13.94861	9.413088	36.47831
92	31	1	0.000000	13.38453	9.514297	35.71162
93	31	1	0.000000	14.65672	8.841507	36.18149
94	32	2	0.000000	12.22878	26.92531	33.38539
95	32	1	0.000000	11.27397	26.94080	33.45118
96	32	1	0.000000	12.40481	26.94164	32.44465
97	33	2	0.000000	45.25954	4.671992	34.73378
98	33	1	0.000000	44.36901	4.321449	34.71635
99	33	1	0.000000	45.17174	5.566703	34.40513
100	34	2	0.000000	31.73344	41.77213	11.55033
101	34	1	0.000000	31.27093	42.32136	12.18331
102	34	1	0.000000	31.12029	41.06378	11.35404
103	35	2	0.000000	13.22148	43.47790	36.74130
104	35	1	0.000000	12.61961	43.67572	36.02378
105	35	1	0.000000	14.02469	43.18908	36.30808
106	36	2	0.000000	31.26828	15.99754	19.43718
107	36	1	0.000000	30.57579	15.54546	18.95520
108	36	1	0.000000	30.97385	16.90715	19.48363
109	37	2	0.000000	11.47574	27.73572	41.33898
110	37	1	0.000000	12.25872	28.05293	41.78903
111	37	1	0.000000	11.04297	28.52869	41.02255
112	38	2	0.000000	26.29321	46.21877	28.67113
113	38	1	0.000000	25.55059	45.61783	28.73128
114	38	1	0.000000	25.89518	47.08069	28.54915
115	39	2	0.000000	43.97226	26.78612	16.04292
116	39	1	0.000000	43.50046	25.98607	16.27433
117	39	1	0.000000	43.37017	27.26311	15.47178
118	40	2	0.000000	32.37134	13.66046	28.52662
119	40	1	0.000000	31.44706	13.44197	28.40744
120	40	1	0.000000	32.39659	14.61707	28.50454
121	41	2	0.000000	28.37276	4.732581	36.06606
122	41	1	0.000000	29.30334	4.532833	36.16775
123	41	1	0.000000	27.94971	3.876701	35.99728
124	42	2	0.000000	13.34738	33.14444	7.390883
125	42	1	0.000000	13.23467	32.37685	6.830227
126	42	1	0.000000	14.01619	32.88316	8.023861
127	43	2	0.000000	40.10969	19.51429	10.74735
128	43	1	0.000000	40.01528	20.44255	10.53373
129	43	1	0.000000	39.21167	19.19882	10.84873
130	44	2	0.000000	2.396827	38.53723	34.27161
131	44	1	0.000000	2.442288	38.92919	33.39952
132	44	1	0.000000	2.790213	37.67099	34.16619
133	45	2	0.000000	41.59317	17.23334	15.33018
134	45	1	0.000000	42.13498	17.84773	14.83500
135	45	1	0.000000	40.97715	16.88376	14.68633
136	46	2	0.000000	35.75521	46.16633	11.65473
137	46	1	0.000000	36.36648	45.42975	11.64953
138	46	1	0.000000	34.89227	45.76272	11.56165
139	47	2	0.000000	42.93980	22.21181	5.846144
140	47	1	0.000000	42.25315	21.54508	5.831482
141	47	1	0.000000	43.74409	21.73241	5.647352
142	48	2	0.000000	34.70956	41.31898	42.59341
143	48	1	0.000000	35.09308	40.48214	42.33104
144	48	1	0.000000	35.45085	41.83265	42.91415
145	49	2	0.000000	44.36162	7.022219	11.81356
146	49	1	0.000000	44.11535	6.303758	11.23098
147	49	1	0.000000	44.80315	6.595287	12.54774
148	50	2	0.000000	29.00122	47.48668	47.29585
149	50	1	0.000000	29.38047	48.01110	48.00111
150	50	1	0.000000	28.27910	48.01924	46.96245
151	51	2	0.000000	42.37503	33.72354	47.13175
152	51	1	0.000000	42.75865	32.90192	47.43836
153	51	1	0.000000	42.16472	33.56172	46.21207
154	52	2	0.000000	14.99259	15.37026	46.42545
155	52	1	0.000000	14.11395	14.99248	46.38685
156	52	1	0.000000	14.84664	16.31613	46.44169
157	53	2	0.000000	42.85778	28.67928	12.66989
158	53	1	0.000000	43.26230	29.50466	12.40278
159	53	1	0.000000	42.04571	28.93966	13.10462
160	54	2	0.000000	32.92281	5.918174	11.44241
161	54	1	0.000000	32.02528	6.233497	11.54844
162	54	1	0.000000	33.04614	5.859262	10.49502
163	55	2	0.000000	22.28301	41.70053	46.78467
164	55	1	0.000000	21.38090	41.59588	47.08711
165	55	1	0.000000	22.27988	42.52698	46.30176
166	56	2	0.000000	25.36443	32.35265	37.21609
167	56	1	0.000000	25.03051	32.55315	38.09046
168	56	1	0.000000	26.15624	32.88416	37.13387
169	57	2	0.000000	18.68642	36.60457	6.701022
170	57	1	0.000000	18.78642	36.72072	5.756173
171	57	1	0.000000	19.26828	37.25975	7.086273
172	58	2	0.000000	15.46345	42.36267	2.341949
173	58	1	0.000000	16.33332	42.75205	2.252801
174	58	1	0.000000	14.86546	43.11006	2.348205
175	59	2	0.000000	13.01102	38.38966	45.03400
176	59	1	0.000000	13.54974	37.95814	45.69718
177	59	1	0.000000	13.57314	39.07837	44.67912
178	60	2	0.000000	42.46660	22.17878	29.05922
179	60	1	0.000000	42.72129	21.26775	29.20546
180	60	1	0.000000	43.29559	22.65482	29.01023
181	61	2	0.000000	41.03944	24.43653	26.07633
182	61	1	0.000000	41.61627	25.19125	25.95848
183	61	1	0.000000	40.20522	24.71021	25.69500
184	62	2	0.000000	37.92546	7.631555	40.10356
185	62	1	0.000000	36.98620	7.483049	39.99417
186	62	1	0.000000	38.29525	6.755988	40.21699
187	63	2	0.000000	16.14065	30.86208	33.81061
188	63	1	0.000000	16.49911	30.18854	33.23261
189	63	1	0.000000	15.96811	30.40495	34.63371
190	64	2	0.000000	17.65430	20.15715	42.98875
191	64	1	0.000000	18.57413	20.17483	43.25297
192	64	1	0.000000	17.18122	20.50927	43.74270
193	65	2	0.000000	8.940778	19.42546	38.23513
194	65	1	0.000000	8.357106	20.05487	38.65868
195	65	1	0.000000	8.368798	18.70141	37.98053
196	66	2	0.000000	18.60462	38.40994	21.13348
197	66	1	0.000000	18.82676	39.28421	20.81328
198	66	1	0.000000	17.65069	38.41836	21.21208
199	67	2	0.000000	8.046852	31.55431	18.28011
200	67	1	0.000000	8.017652	31.10595	19.12531
201	67	1	0.000000	8.297417	30.87340	17.65577
202	68	2	0.000000	38.72552	26.23907	33.29325
203	68	1	0.000000	38.51476	25.30537	33.29002
204	68	1	0.000000	39.68224	26.26915	33.29143
205	69	2	0.000000	19.14978	24.91416	24.65887
206	69	1	0.000000	19.52782	24.03877	24.74256
207	69	1	0.000000	19.87317	25.45940	24.34960
208	70	2	0.000000	13.01416	7.270844	25.77889
209	70	1	0.000000	13.33806	6.687892	25.09224
210	70	1	0.000000	13.64070	7.994328	25.79476
211	71	2	0.000000	38.85605	44.29488	18.89702
212	71	1	0.000000	39.05473	44.90296	18.18498
213	71	1	0.000000	37.95944	44.51048	19.15359
214	72	2	0.000000	39.58834	21.22582	23.38593
215	72	1	0.000000	39.44952	22.16635	23.27471
216	72	1	0.000000	38.71213	20.86962	23.53290
217	73	2	0.000000	36.86616	12.45199	29.31257
218	73	1	0.000000	36.31212	11.77419	28.92545
219	73	1	0.000000	36.47842	12.61698	30.17203
220	74	2	0.000000	17.94571	10.72407	4.966534
221	74	1	0.000000	16.99490	10.63489	4.901429
222	74	1	0.000000	18.27085	9.823884	4.979444
223	75	2	0.000000	37.94435	40.96180	24.32799
224	75	1	0.000000	37.24866	41.58226	24.54540
225	75	1	0.000000	37.49853	40.11813	24.25256
226	76	2	0.000000	14.42668	7.730589	21.13240
227	76	1	0.000000	15.34042	7.712206	21.41695
228	76	1	0.000000	14.41662	8.343185	20.39697
229	77	2	0.000000	5.679219	7.809102	46.68224
230	77	1	0.000000	6.191411	7.000614	46.66685
231	77	1	0.000000	4.788322	7.532927	46.46716
232	78	2	0.000000	13.62320	26.83770	14.18871
233	78	1	0.000000	14.18429	26.79557	14.96307
234	78	1	0.000000	14.13563	27.33022	13.54755
235	79	2	0.000000	7.251249	26.44759	12.77436
236	79	1	0.000000	7.147106	25.67992	13.33656
237	79	1	0.000000	6.390181	26.86566	12.77711
238	80	2	0.000000	41.09167	41.50393	8.607822
239	80	1	0.000000	40.47364	42.06496	9.076358
240	80	1	0.000000	41.16050	41.89694	7.737743
241	81	2	0.000000	26.80572	24.64624	3.429704
242	81	1	0.000000	27.69770	24.68088	3.775257
243	81	1	0.000000	26.72303	23.76439	3.066775
244	82	2	0.000000	22.47724	29.62210	4.053404
245	82	1	0.000000	21.70788	29.36783	3.543830
246	82	1	0.000000	22.21036	29.50565	4.965242
247	83	2	0.000000	27.39110	33.21396	24.47783
248	83	1	0.000000	27.91435	32.41245	24.47222
249	83	1	0.000000	27.43754	33.52454	25.38205
250	84	2	0.000000	27.65735	37.61378	27.66128
251	84	1	0.000000	27.84124	36.71895	27.94710
252	84	1	0.000000	26.70621	37.69684	27.72960
253	85	2	0.000000	28.84256	37.05360	32.44285
254	85	1	0.000000	29.11232	37.85140	31.98790
255	85	1	0.000000	27.90814	36.97262	32.25172
256	86	2	0.000000	12.14557	6.218448	21.19488
257	86	1	0.000000	11.61199	7.011567	21.24471
258	86	1	0.000000	11.51055	5.506517	21.11654
259	87	2	0.000000	14.89590	12.15565	42.97016
260	87	1	0.000000	15.31938	12.94227	42.62648
261	87	1	0.000000	15.56784	11.73690	43.50809
262	88	2	0.000000	4.125662	42.65514	39.98668
263	88	1	0.000000	5.050131	42.40699	39.98988
264	88	1	0.000000	3.654045	41.82470	40.05133
265	89	2	0.000000	14.08148	5.999025	28.57371
266	89	1	0.000000	14.70276	6.727199	28.57605
267	89	1	0.000000	14.05171	5.706029	29.48447
268	90	2	0.000000	21.17002	28.43663	40.28064
269	90	1	0.000000	20.63570	29.01371	40.82627
270	90	1	0.000000	20.67311	28.34741	39.46740
271	91	2	0.000000	27.26541	44.04663	6.093648
272	91	1	0.000000	26.37660	44.37465	6.230202
273	91	1	0.000000	27.81404	44.83099	6.098242
274	92	2	0.000000	12.55564	28.02692	24.10822
275	92	1	0.000000	12.52459	27.07085	24.07359
276	92	1	0.000000	12.65089	28.23040	25.03868
277	93	2	0.000000	38.39370	33.24379	15.06195
278	93	1	0.000000	39.18988	32.82652	14.73297
279	93	1	0.000000	38.67141	34.12387	15.31606
280	94	2	0.000000	26.52605	38.21205	43.10666
281	94	1	0.000000	25.57016	38.16204	43.10762
282	94	1	0.000000	26.77356	38.09225	44.02351
283	95	2	0.000000	30.22215	25.63245	29.41300
284	95	1	0.000000	29.63725	25.87343	30.13137
285	95	1	0.000000	30.15497	24.67918	29.35830
286	96	2	0.000000	5.309799	13.62605	23.94660
287	96	1	0.000000	5.376357	12.88132	23.34896
288	96	1	0.000000	4.609346	14.16587	23.58027
289	97	2	0.000000	22.72526	41.72152	26.93439
290	97	1	0.000000	23.68106	41.69093	26.89259
291	97	1	0.000000	22.45854	40.80471	27.00196
292	98	2	0.000000	40.48088	5.595647	34.33605
293	98	1	0.000000	40.93287	6.429518	34.46488
294	98	1	0.000000	39.78600	5.595109	34.99436
295	99	2	0.000000	35.47376	19.00283	42.55370
296	99	1	0.000000	36.39143	18.76699	42.68969
297	99	1	0.000000	35.47911	19.95747	42.48396
298	100	2	0.000000	44.69426	40.97477	37.48793
299	100	1	0.000000	44.41301	41.87583	37.32909
300	100	1	0.000000	45.58349	40.93533	37.13588
301	101	2	0.000000	13.55255	8.271936	18.12560
302	101	1	0.000000	12.78251	8.214258	18.69124
303	101	1	0.000000	13.95228	7.403606	18.17510
304	102	2	0.000000	40.51163	15.71988	6.596784
305	102	1	0.000000	40.39126	16.43421	5.971101
306	102	1	0.000000	41.20723	15.18298	6.217150
307	103	2	0.000000	16.43459	45.98177	21.66120
308	103	1	0.000000	16.41728	45.03624	21.80918
309	103	1	0.000000	15.83542	46.12091	20.92781
310	104	2	0.000000	39.00588	7.625007	8.597198
311	104	1	0.000000	38.90889	6.897786	7.982401
312	104	1	0.000000	38.61436	8.373594	8.147132
313	105	2	0.000000	18.15184	28.48864	45.45624
314	105	1	0.000000	18.90128	29.02780	45.70899
315	105	1	0.000000	18.43982	27.58920	45.61215
316	106	2	0.000000	43.35432	36.48072	5.278564
317	106	1	0.000000	42.56740	37.01415	5.390044
318	106	1	0.000000	44.07080	37.11446	5.243056
319	107	2	0.000000	11.64135	12.29505	37.69478
320	107	1	0.000000	11.10635	11.50235	37.73536
321	107	1	0.000000	12.01019	12.38090	38.57388
322	108	2	0.000000	13.31592	38.07394	25.32471
323	108	1	0.000000	13.95159	37.56079	24.82588
324	108	1	0.000000	13.35561	38.94803	24.93661
325	109	2	0.000000	44.95069	34.50605	47.69916
326	109	1	0.000000	45.19601	35.40688	47.91024
327	109	1	0.000000	45.73256	33.99129	47.89898
328	110	2	0.000000	28.10890	41.38978	15.49171
329	110	1	0.000000	27.29355	41.65754	15.06776
330	110	1	0.000000	28.79507	41.83708	14.99641
331	111	2	0.000000	25.94968	8.282509	26.63020
332	111	1	0.000000	26.02974	8.236315	25.67747
333	111	1	0.000000	25.05335	7.998618	26.80976
334	112	2	0.000000	36.41767	2.218144	3.117399
335	112	1	0.000000	36.54612	3.018081	3.627140
336	112	1	0.000000	37.29035	1.998893	2.790919
337	113	2	0.000000	17.27613	40.23971	30.59012
338	113	1	0.000000	17.09545	39.34842	30.88876
339	113	1	0.000000	16.42477	40.67677	30.61024
340	114	2	0.000000	22.14260	23.54025	39.40130
341	114	1	0.000000	22.20731	22.58862	39.32105
342	114	1	0.000000	23.02172	23.85870	39.19647
343	115	2	0.000000	4.058369	30.34837	40.02282
344	115	1	0.000000	4.711397	29.68600	40.24877
345	115	1	0.000000	4.415356	30.78291	39.24825
346	116	2	0.000000	27.79832	34.54731	46.49634
347	116	1	0.000000	26.95854	34.97561	46.66238
348	116	1	0.000000	28.31120	35.20090	46.02094
349	117	2	0.000000	13.84820	19.93115	44.70296
350	117	1	0.000000	14.06706	20.85732	44.60024
351	117	1	0.000000	13.51260	19.86155	45.59669
352	118	2	0.000000	38.06474	14.97862	31.11362
353	118	1	0.000000	38.18254	15.70676	30.50356
354	118	1	0.000000	38.94407	14.61908	31.23083
355	119	2	0.000000	39.51048	11.51247	33.09323
356	119	1	0.000000	39.43256	12.45911	32.97479
357	119	1	0.000000	38.60959	11.19108	33.05668
358	120	2	0.000000	11.24765	2.912506	45.39070
359	120	1	0.000000	11.03564	2.000877	45.19016
360	120	1	0.000000	10.40371	3.316219	45.59319
361	121	2	0.000000	43.13670	12.47858	24.86033
362	121	1	0.000000	43.92953	11.94362	24.82198
363	121	1	0.000000	43.42662	13.31089	25.23374
364	122	2	0.000000	3.161873	21.98412	14.01061
365	122	1	0.000000	3.386770	21.10772	14.32299
366	122	1	0.000000	2.204936	21.99340	13.99022
367	123	2	0.000000	24.14384	35.23982	29.12377
368	123	1	0.000000	24.38856	34.31453	29.13727
369	123	1	0.000000	24.45178	35.58177	29.96310
370	124	2	0.000000	2.000579	27.44270	10.01732
371	124	1	0.000000	2.197796	28.37922	10.00086
372	124	1	0.000000	2.268253	27.15640	10.89060
373	125	2	0.000000	25.34642	23.81635	15.18337
374	125	1	0.000000	25.83224	22.99306	15.13431
375	125	1	0.000000	24.42636	23.55233	15.18532
376	126	2	0.000000	45.56249	26.38858	26.79455
377	126	1	0.000000	46.36919	25.87705	26.73286
378	126	1	0.000000	44.88833	25.81921	26.42366
379	127	2	0.000000	22.23499	8.460019	5.415159
380	127	1	0.000000	22.14059	9.345615	5.064389
381	127	1	0.000000	23.15425	8.401764	5.675565
382	128	2	0.000000	20.92394	12.19752	17.25024
383	128	1	0.000000	20.60970	12.76314	17.95562
384	128	1	0.000000	20.19738	12.16374	16.62798
385	129	2	0.000000	45.46492	21.75364	47.99957
386	129	1	0.000000	44.56406	21.44775	47.89408
387	129	1	0.000000	45.39743	22.70835	47.98512
388	130	2	0.000000	26.99820	41.34846	37.64464
389	130	1	0.000000	27.83798	41.10070	38.03145
390	130	1	0.000000	27.11920	41.21748	36.70420
391	131	2	0.000000	22.89056	36.53129	17.40715
392	131	1	0.000000	23.15034	35.93608	16.70396
393	131	1	0.000000	21.96633	36.71390	17.23781
394	132	2	0.000000	17.06573	21.18558	40.09121
395	132	1	0.000000	16.26547	21.71060	40.10425
396	132	1	0.000000	17.76973	21.81749	40.23713
397	133	2	0.000000	33.12186	28.67782	22.91241
398	133	1	0.000000	33.31472	27.79666	22.59210
399	133	1	0.000000	32.18532	28.66187	23.10958
400	134	2	0.000000	23.94073	19.94584	38.47446
401	134	1	0.000000	23.09447	20.38689	38.54898
402	134	1	0.000000	23.72504	19.01335	38.46147
403	135	2	0.000000	3.794354	12.32728	38.55343
404	135	1	0.000000	3.134058	11.75563	38.94515
405	135	1	0.000000	4.396187	11.72980	38.10953
406	136	2	0.000000	34.30274	16.51573	12.67177
407	136	1	0.000000	33.80809	17.33485	12.64759
408	136	1	0.000000	34.18080	16.13596	11.80163
409	137	2	0.000000	6.732968	29.04419	46.01600
410	137	1	0.000000	7.587710	28.75020	45.70101
411	137	1	0.000000	6.141268	28.31860	45.81687
412	138	2	0.000000	38.68166	32.00375	18.13516
413	138	1	0.000000	38.27615	31.52438	17.41266
414	138	1	0.000000	39.36200	32.53362	17.71969
415	139	2	0.000000	32.77204	6.196100	17.39669
416	139	1	0.000000	33.06810	5.419776	17.87198
417	139	1	0.000000	32.38903	6.758241	18.07013
418	140	2	0.000000	31.82225	12.18666	31.65869
419	140	1	0.000000	32.05046	13.11391	31.59274
420	140	1	0.000000	32.65258	11.72598	31.53798
421	141	2	0.000000	15.16479	38.59316	33.45596
422	141	1	0.000000	15.07651	39.10397	34.26064
423	141	1	0.000000	14.70190	37.77551	33.63876
424	142	2	0.000000	44.30016	15.54084	39.91306
425	142	1	0.000000	43.60921	15.85864	40.49428
426	142	1	0.000000	44.87041	16.29831	39.78158
427	143	2	0.000000	45.63177	22.34431	27.17096
428	143	1	0.000000	45.69147	21.65816	27.83568
429	143	1	0.000000	44.76482	22.72891	27.30023
430	144	2	0.000000	3.110245	4.476818	6.144471
431	144	1	0.000000	2.250750	4.866387	6.304898
432	144	1	0.000000	3.136096	3.709034	6.715497
433	145	2	0.000000	30.44285	38.55191	12.57187
434	145	1	0.000000	29.81919	38.45008	11.85290
435	145	1	0.000000	29.91415	38.86562	13.30555
436	146	2	0.000000	38.95583	7.043117	30.04415
437	146	1	0.000000	39.24101	7.955859	30.08665
438	146	1	0.000000	38.00034	7.088350	30.07908
439	147	2	0.000000	47.99583	25.82255	5.688052
440	147	1	0.000000	47.11276	26.19184	5.681905
441	147	1	0.000000	47.92006	25.01096	5.186249
442	148	2	0.000000	4.959936	36.61689	47.01698
443	148	1	0.000000	4.685243	36.17191	47.81870
444	148	1	0.000000	4.930709	37.54795	47.23720
445	149	2	0.000000	12.05212	35.29559	27.71785
446	149	1	0.000000	11.14740	34.98298	27.71735
447	149	1	0.000000	12.58155	34.49820	27.72701
448	150	2	0.000000	46.70215	34.84080	38.59249
449	150	1	0.000000	47.20163	35.54826	38.18475
450	150	1	0.000000	46.61957	35.10286	39.50941
451	151	2	0.000000	15.44136	14.34591	9.417875
452	151	1	0.000000	14.72282	13.88697	8.982784
453	151	1	0.000000	15.73565	13.74053	10.09841
454	152	2	0.000000	27.09994	15.61436	3.073771
455	152	1	0.000000	27.17274	14.69834	3.341819
456	152	1	0.000000	28.00374	15.89486	2.929889
457	153	2	0.000000	33.49153	43.30395	31.10006
458	153	1	0.000000	33.88276	44.10151	30.74360
459	153	1	0.000000	33.42278	42.71412	30.34933
460	154	2	0.000000	46.62522	43.21378	45.65901
461	154	1	0.000000	47.41780	43.66757	45.94558
462	154	1	0.000000	46.81740	42.28599	45.79506
463	155	2	0.000000	8.136818	41.29234	16.44801
464	155	1	0.000000	8.117278	42.24293	16.55864
465	155	1	0.000000	9.062650	41.06104	16.52259
466	156	2	0.000000	32.04557	16.30006	24.87881
467	156	1	0.000000	32.46378	17.16107	24.87849
468	156	1	0.000000	31.10724	16.48902	24.87137
469	157	2	0.000000	21.93972	16.74337	6.793518
470	157	1	0.000000	21.77407	17.39514	7.474687
471	157	1	0.000000	22.24072	15.96960	7.269856
472	158	2	0.000000	38.21101	16.08566	34.78190
473	158	1	0.000000	38.40020	17.01192	34.93183
474	158	1	0.000000	37.39427	15.92782	35.25545
475	159	2	0.000000	41.17648	2.689656	8.747605
476	159	1	0.000000	40.51434	1.999482	8.709426
477	159	1	0.000000	41.44406	2.816141	7.837311
478	160	2	0.000000	23.77510	44.10844	34.61780
479	160	1	0.000000	23.18452	43.72785	33.96772
480	160	1	0.000000	23.19835	44.40303	35.32265
481	161	2	0.000000	21.21851	22.60371	12.60035
482	161	1	0.000000	22.12897	22.74470	12.85998
483	161	1	0.000000	21.25088	22.52042	11.64733
484	162	2	0.000000	44.43163	37.46748	41.91691
485	162	1	0.000000	44.31763	38.41256	41.81666
486	162	1	0.000000	43.54958	37.13585	42.08495
487	163	2	0.000000	4.434775	14.55195	8.041089
488	163	1	0.000000	4.154661	13.79534	7.526005
489	163	1	0.000000	3.753664	14.65531	8.705646
490	164	2	0.000000	10.18354	19.32507	43.64579
491	164	1	0.000000	11.11729	19.27164	43.44212
492	164	1	0.000000	10.08508	18.82210	44.45422
493	165	2	0.000000	3.813482	30.43684	47.37084
494	165	1	0.000000	4.554432	29.83208	47.33220
495	165	1	0.000000	4.171597	31.22998	47.76948
496	166	2	0.000000	10.55233	29.72353	25.64065
497	166	1	0.000000	9.773622	29.84287	26.18434
498	166	1	0.000000	10.99823	30.56998	25.67100
499	167	2	0.000000	2.138862	36.94014	38.86974
500	167	1	0.000000	2.835987	36.47006	39.32720
501	167	1	0.000000	1.999526	36.43975	38.06573
502	168	2	0.000000	40.41459	43.46587	26.25800
503	168	1	0.000000	40.45203	43.02545	25.40896
504	168	1	0.000000	40.65767	42.78945	26.89014
505	169	2	0.000000	36.04800	12.61843	16.33096
506	169	1	0.000000	35.15272	12.29468	16.23149
507	169	1	0.000000	36.26879	12.98102	15.47306
508	170	2	0.000000	29.17804	17.06437	15.11855
509	170	1	0.000000	29.47089	16.57289	14.35114
510	170	1	0.000000	29.08340	17.96401	14.80561
511	171	2	0.000000	27.64084	11.99642	10.04592
512	171	1	0.000000	27.69749	12.92434	9.817919
513	171	1	0.000000	27.71593	11.97872	11.00001
514	172	2	0.000000	28.73384	33.11335	14.60592
515	172	1	0.000000	28.04554	32.48455	14.82292
516	172	1	0.000000	28.28291	33.95643	14.56003
517	173	2	0.000000	18.01960	34.48309	13.22435
518	173	1	0.000000	17.13827	34.42915	13.59391
519	173	1	0.000000	17.88498	34.78368	12.32560
520	174	2	0.000000	9.356488	17.79814	18.14709
521	174	1	0.000000	9.944031	17.04392	18.19374
522	174	1	0.000000	9.159402	17.89154	17.21507
523	175	2	0.000000	39.92558	4.104101	26.29467
524	175	1	0.000000	39.39687	4.873056	26.50776
525	175	1	0.000000	40.06216	3.666427	27.13492
526	176	2	0.000000	30.25617	28.26043	41.75142
527	176	1	0.000000	30.53828	27.57056	41.15081
528	176	1	0.000000	29.36539	28.01309	41.99957
529	177	2	0.000000	43.66452	30.15039	46.23296
530	177	1	0.000000	44.44001	30.70519	46.14902
531	177	1	0.000000	43.06294	30.65941	46.77630
532	178	2	0.000000	3.562633	43.98340	11.88766
533	178	1	0.000000	2.990875	43.48948	12.47534
534	178	1	0.000000	3.238824	44.88278	11.93763
535	179	2	0.000000	37.46662	46.47381	25.32944
536	179	1	0.000000	36.56507	46.17652	25.20673
537	179	1	0.000000	37.96710	45.67027	25.47118
538	180	2	0.000000	46.50121	31.53815	37.45346
539	180	1	0.000000	46.24788	31.01810	36.69083
540	180	1	0.000000	46.85989	30.90031	38.07049
541	181	2	0.000000	38.44123	12.73745	44.63797
542	181	1	0.000000	39.09960	12.84989	45.32363
543	181	1	0.000000	37.61495	12.97840	45.05683
544	182	2	0.000000	15.00216	25.58667	39.06911
545	182	1	0.000000	15.15302	25.48048	38.12986
546	182	1	0.000000	15.65730	26.22702	39.34652
547	183	2	0.000000	28.61392	27.33293	20.25436
548	183	1	0.000000	28.73166	26.61403	20.87529
549	183	1	0.000000	28.27381	26.91393	19.46379
550	184	2	0.000000	10.96651	2.388244	21.42856
551	184	1	0.000000	10.11817	2.782748	21.22628
552	184	1	0.000000	11.60771	2.995333	21.05905
553	185	2	0.000000	6.875274	7.635771	11.75799
554	185	1	0.000000	7.513420	6.922866	11.78570
555	185	1	0.000000	6.024848	7.198329	11.79864
556	186	2	0.000000	14.68757	35.96612	2.689412
557	186	1	0.000000	15.53872	36.30228	2.970078
558	186	1	0.000000	14.83437	35.03127	2.545437
559	187	2	0.000000	21.04918	15.03172	44.44063
560	187	1	0.000000	21.49565	15.65006	43.86221
561	187	1	0.000000	20.30517	15.52311	44.78879
562	188	2	0.000000	44.71570	24.54672	11.16353
563	188	1	0.000000	44.85812	25.49114	11.22692
564	188	1	0.000000	45.49693	24.21539	10.72067
565	189	2	0.000000	29.92822	24.41250	39.57503
566	189	1	0.000000	29.98984	24.36249	38.62113
567	189	1	0.000000	30.70400	23.94880	39.89028
568	190	2	0.000000	25.48895	35.69915	38.43602
569	190	1	0.000000	26.42975	35.73147	38.60944
570	190	1	0.000000	25.30689	34.77394	38.27145
571	191	2	0.000000	31.74204	6.753843	15.02895
572	191	1	0.000000	32.68022	6.564430	15.04271
573	191	1	0.000000	31.65284	7.479945	14.41166
574	192	2	0.000000	34.19864	32.71300	36.07187
575	192	1	0.000000	33.75892	32.65871	36.92036
576	192	1	0.000000	34.56610	31.83970	35.93568
577	193	2	0.000000	40.89517	38.78174	15.01702
578	193	1	0.000000	40.53575	38.63965	15.89273
579	193	1	0.000000	41.50070	38.05229	14.88487
580	194	2	0.000000	47.17457	35.05193	33.15254
581	194	1	0.000000	47.52944	35.50607	33.91678
582	194	1	0.000000	47.62670	35.44716	32.40716
583	195	2	0.000000	18.17924	34.38043	41.35731
584	195	1	0.000000	18.75879	33.62136	41.29273
585	195	1	0.000000	18.72114	35.12016	41.08276
586	196	2	0.000000	17.84609	43.16322	22.03092
587	196	1	0.000000	17.99355	42.70839	21.20169
588	196	1	0.000000	18.45026	42.74534	22.64459
589	197	2	0.000000	16.65630	42.49961	7.122411
590	197	1	0.000000	17.08008	42.86413	6.345385
591	197	1	0.000000	16.65688	41.55387	6.974702
592	198	2	0.000000	32.95566	40.17249	22.02926
593	198	1	0.000000	32.26115	40.76883	21.74950
594	198	1	0.000000	33.76540	40.59819	21.74761
595	199	2	0.000000	42.20369	28.47396	10.54756
596	199	1	0.000000	41.33991	28.06286	10.51398
597	199	1	0.000000	42.02142	29.41311	10.57936
598	200	2	0.000000	10.75616	42.22500	45.97227
599	200	1	0.000000	9.844339	42.18324	45.68406
600	200	1	0.000000	10.82493	41.55182	46.64927
601	201	2	0.000000	13.35068	16.45529	10.49231
602	201	1	0.000000	13.93870	17.20903	10.44387
603	201	1	0.000000	13.92816	15.69535	10.41989
604	202	2	0.000000	31.48065	41.70944	3.598473
605	202	1	0.000000	32.19113	41.90178	4.210404
606	202	1	0.000000	30.78128	41.35389	4.146831
607	203	2	0.000000	44.80442	16.34050	46.12965
608	203	1	0.000000	45.15249	16.34369	45.23799
609	203	1	0.000000	44.72989	17.26620	46.36151
610	204	2	0.000000	32.71665	21.26220	45.14168
611	204	1	0.000000	33.51667	21.31189	44.61848
612	204	1	0.000000	32.50534	20.32902	45.16899
613	205	2	0.000000	33.70501	10.07088	25.44912
614	205	1	0.000000	33.17232	9.344758	25.12474
615	205	1	0.000000	33.93493	10.56898	24.66474
616	206	2	0.000000	18.47395	3.702006	20.11424
617	206	1	0.000000	18.50551	2.865485	19.65006
618	206	1	0.000000	17.64971	3.675846	20.60023
619	207	2	0.000000	43.49665	28.14154	7.087067
620	207	1	0.000000	43.21480	28.82112	7.699412
621	207	1	0.000000	42.73281	27.98771	6.531075
622	208	2	0.000000	11.83441	40.81351	36.64067
623	208	1	0.000000	11.83106	40.96883	35.69616
624	208	1	0.000000	11.94975	41.68198	37.02629
625	209	2	0.000000	9.882048	36.33489	6.530797
626	209	1	0.000000	10.74093	35.91634	6.472771
627	209	1	0.000000	9.259812	35.63367	6.337574
628	210	2	0.000000	34.19303	38.19284	9.483096
629	210	1	0.000000	33.63235	38.93818	9.267831
630	210	1	0.000000	34.95039	38.28753	8.905442
631	211	2	0.000000	7.866625	43.78464	28.89387
632	211	1	0.000000	7.121745	43.88393	29.48677
633	211	1	0.000000	8.276473	44.64949	28.87650
634	212	2	0.000000	9.262835	38.83687	8.776565
635	212	1	0.000000	8.741194	39.60212	9.018471
636	212	1	0.000000	9.677218	39.08079	7.948905
637	213	2	0.000000	32.80975	18.03947	45.77955
638	213	1	0.000000	33.40815	17.44526	45.32670
639	213	1	0.000000	31.93665	17.73955	45.52660
640	214	2	0.000000	36.60237	2.689608	27.35816
641	214	1	0.000000	36.65719	3.477750	27.89859
642	214	1	0.000000	37.01424	2.006597	27.88740
643	215	2	0.000000	9.257479	32.42536	23.73830
644	215	1	0.000000	8.449349	32.40005	23.22594