Topology written by dcardenas at 2024-10-18 17:54:26.289772 using the GMSO LAMMPS Writer


12893 atoms
11870 bonds
18829 angles
26402 dihedrals
1228 impropers

12 atom types
12 bond types
18 angle types
21 dihedral types
2 improper types

0.000000 50.000000 xlo xhi
0.000000 50.000000 ylo yhi
0.000000 50.000000 zlo zhi
0.000000 0.000000 0.000000 xy xz yz

Masses
#	mass (amu)
1	12.010	# c
2	12.010	# c2
3	12.010	# c3
4	12.010	# ce
5	1.008	# h1
6	1.008	# ha
7	1.008	# hc
8	1.008	# hn
9	1.008	# ho
10	14.010	# n
11	16.000	# o
12	16.000	# oh

Pair Coeffs # 4*epsilon*(-sigma**6/r**6 + sigma**12/r**12)
#	epsilon (kcal/mol)	sigma (Å)
1	0.08600		3.39967		# c
2	0.08600		3.39967		# c2
3	0.10940		3.39967		# c3
4	0.08600		3.39967		# ce
5	0.01570		2.47135		# h1
6	0.01500		2.59964		# ha
7	0.01570		2.64953		# hc
8	0.01570		1.06908		# hn
9	0.00000		0.00000		# ho
10	0.17000		3.25000		# n
11	0.21000		2.95992		# o
12	0.21040		3.06647		# oh

Bond Coeffs #LAMMPSHarmonicBondPotential
#	k (kcal/(mol*Å**2))	r_eq (Å)
1	354.500000	1.482500		# c	ce
2	427.600000	1.378900		# c	n
3	637.700000	1.218300		# c	o
4	547.300000	1.346100		# c2	ce
5	343.100000	1.087900		# c2	ha
6	300.900000	1.537500		# c3	c3
7	330.600000	1.096900		# c3	h1
8	330.600000	1.096900		# c3	hc
9	328.700000	1.461900		# c3	n
10	342.500000	1.088300		# ce	ha
11	403.200000	1.012900		# hn	n
12	371.400000	0.973000		# ho	oh

Angle Coeffs #LAMMPSHarmonicAnglePotential
#	k (kcal/(mol*rad**2))	theta_eq (degrees)
1	67.900000	115.220000	#ce         	c          	n          
2	68.800000	123.200000	#ce         	c          	o          
3	74.200000	123.050000	#n          	c          	o          
4	49.500000	120.450000	#ce         	c2         	ha         
5	38.100000	116.900000	#ha         	c2         	ha         
6	62.900000	111.510000	#c3         	c3         	c3         
7	46.400000	109.560000	#c3         	c3         	h1         
8	46.300000	109.800000	#c3         	c3         	hc         
9	65.900000	111.610000	#c3         	c3         	n          
10	49.800000	108.880000	#h1         	c3         	n          
11	39.400000	107.580000	#hc         	c3         	hc         
12	65.500000	120.420000	#c          	ce         	c2         
13	46.500000	116.460000	#c          	ce         	ha         
14	49.600000	119.940000	#c2         	ce         	ha         
15	63.400000	120.690000	#c          	n          	c3         
16	48.300000	117.550000	#c          	n          	hn         
17	45.800000	117.680000	#c3         	n          	hn         
18	41.600000	106.490000	#ho         	oh         	ho         

Dihedral Coeffs #PeriodicTorsionPotential
#	k (kcal/mol)	n (dimensionless)	phi_eq (degrees)	weights (dimensionless)
1	2.175000	2       	180     	0.0     	# n	c	ce	c2
2	2.175000	2       	180     	0.0     	# n	c	ce	ha
3	2.175000	2       	180     	0.0     	# o	c	ce	c2
4	2.175000	2       	180     	0.0     	# o	c	ce	ha
5	2.500000	2       	180     	0.0     	# ce	c	n	c3
6	2.500000	2       	180     	0.0     	# ce	c	n	hn
7	2.500000	2       	180     	0.0     	# o	c	n	c3
8	2.500000	2       	180     	0.0     	# o	c	n	hn
9	2.000000	1       	0       	0.0     	# o	c	n	hn
10	6.650000	2       	180     	0.0     	# ha	c2	ce	c
11	6.650000	2       	180     	0.0     	# ha	c2	ce	ha
12	0.160000	3       	0       	0.0     	# c3	c3	c3	hc
13	0.155556	3       	0       	0.0     	# h1	c3	c3	hc
14	0.155556	3       	0       	0.0     	# hc	c3	c3	n
15	0.500000	4       	180     	0.0     	# c3	c3	n	c
16	0.150000	3       	180     	0.0     	# c3	c3	n	c
17	0.000000	2       	0       	0.0     	# c3	c3	n	c
18	0.530000	1       	0       	0.0     	# c3	c3	n	c
19	0.000000	2       	0       	0.0     	# c3	c3	n	hn
20	0.000000	2       	0       	0.0     	# h1	c3	n	c
21	0.000000	2       	0       	0.0     	# h1	c3	n	hn

Improper Coeffs #PeriodicTorsionPotential
